<?xml version="1.0"?>
<VTKFile type="UnstructuredGrid" version="0.1" byte_order="LittleEndian" header_type="UInt64">
  <UnstructuredGrid>
  <Piece NumberOfPoints="1336" NumberOfCells="6040">
    <Points>
      <DataArray type ="Float64" NumberOfComponents="3" format="ascii">
12.4933 4.04558 -14.9831 38.8089 -12.8525 5.99562 19.2022 -14.2921 12.5118 0.514315 27.9634 19.8861 11.5955 -14.3408 -3.18623 -6.25256 39.5787 16.2398 10.5438 45.4158 -6.59258 15.5472 -2.93167 17.3425 -17.0205 17.7197 -6.80648 -15.5557 24.1152 10.8482 -10.9982 -2.97701 10.2379 12.1877 40.5495 11.713 17.1308 17.9725 6.11968 39.0837 10.4381 -9.38891 -13.9237 42.2051 -7.07226 2.41646 26.0375 -19.346 30.8562 -10.4673 -15.8601 36.8316 8.76271 13.359 -8.97057 -2.7329 -12.334 0.621796 8.80575 19.8904 17.5769 28.5025 -9.06418 -2.62411 49.4467 3.09144 -2.01036 10.1638 -19.8904 26.9974 -19.5825 -2.94585 31.3268 -5.48278 18.0255 24.2426 14.6775 -13.3349 42.8815 -4.83341 -7.11603 -3.68523 23.3319 8.56643 -9.15926 21.8564 0.982518 3.72215 -7.62334 8.41114 -12.2169 29.4559 -15.6683 -18.8431 9.72865 6.2861 22.6631 9.93911 17.1287 -16.9896 37.9558 6.524 25.6965 2.14575 -19.8552 16.7356 -9.45873 -15.4469 19.3728 31.4423 4.27714 44.0304 -0.139672 5.75212 4.19012 -5.99884 -11.0091 -6.04732 -8.96814 -0.760458 12.8446 26.9443 14.9718 -16.5816 -0.722554 -1.61755 11.2873 17.2774 -14.7462 -19.5031 30.5022 -4.18016 -11.0886 13.1118 16.1792 10.4943 36.6025 -15.5348 -13.3509 8.75415 -14.7527 10.607 14.8997 16.0855 36.8869 0.645571 -15.9003 41.3961 10.9098 2.25862 37.2105 -14.7262 -5.28741 -8.17165 18.8247 -15.8357 28.8988 -17.7925 8.00007 -4.22931 47.7656 -7.86905 17.4812 18.0436 -5.0705 -1.59436 -1.49982 16.1262 8.29456 47.6144 4.06733 2.40598 45.0268 12.7529 17.8613 37.9917 -4.07797 -9.58584 29.6781 17.4898 18.6464 -18.589 3.10239 29.3011 15.6231 11.609 -2.4602 18.3671 17.8799 -0.645974 0.322664 -17.4404 5.15284 36.7731 17.9638 -9.94714 44.9779 8.49458 23.4728 -16.0753 -11.774 9.37201 4.9648 16.8173 -18.6386 7.86395 -6.31206 31.9794 9.2151 -16.1426 31.9406 16.9643 -7.67118 -18.3513 22.6429 1.56699 39.4182 -5.54718 12.4983 30.2565 4.13075 18.7866 11.5969 -12.9821 6.66057 -5.17209 25.1531 -18.6001 44.1019 4.2006 -4.06972 11.2971 27.1306 -16.0891 -10.0955 38.6071 -14.8977 -9.3091 3.8766 16.4596 -4.1697 32.7534 -19.2687 6.99147 10.2827 -18.6467 15.3592 42.1247 3.47548 22.7827 -8.17325 17.9873 -10.5405 46.8976 -0.23406 3.25867 49.2714 -3.46993 -4.25405 30.3582 19.4225 33.5605 -12.3015 12.9929 23.6846 19.8135 0.73581 23.9641 -6.26538 -18.9327 3.12031 40.7099 1.23341 2.25896 17.4816 -18.2863 6.17608 22.1143 17.2733 22.1437 1.86318 19.607 3.51862 45.9953 -11.2582 -4.65776 -7.80425 7.47629 -4.95695 38.44 2.34339 8.41935 -2.41552 12.9825 -16.1122 34.7794 -10.5213 -16.8016 1.63244 6.39075 18.7383 -18.1322 -5.22408 37.9877 -9.62613 -11.7537 -16.5192 25.3592 -9.92162 -3.51459 -7.61223 -8.50523 39.7271 7.12634 -11.363 18.1011 -0.594738 -18.6733 33.9057 -17.6278 1.57292 -18.1331 38.0469 -1.51322 16.0354 33.4437 11.3674 18.3397 -11.5563 8.29921 -9.36204 21.8443 15.5166 36.4358 14.3714 7.58481 3.79529 33.9755 -19.1634 -15.1936 1.25846 -9.2529 10.9968 -10.0504 -9.90858 19.4163 26.1167 -1.67065 -19.3052 14.8681 0.246812 -7.90355 3.50002 -17.1177 36.9828 1.22944 15.7861 -12.0989 -5.42951 2.83313 -11.365 -5.33687 -5.29652 31.1599 -15.8713 -10.1658 17.4289 13.49 12.5246 17.2509 25.3539 8.70688 13.3721 -9.17403 13.2207 11.6693 -3.6631 -14.3035 -15.0786 7.44342 12.6809 37.8268 14.8462 -3.25503 31.0252 -3.37633 -18.681 14.64 2.175 -10.4727 25.4034 15.5395 2.91808 24.6813 18.5476 -6.96877 26.3764 -13.6734 14.4563 17.0419 13.1395 -12.6312 41.3097 3.59172 -10.8333 12.3918 10.2355 -15.5648 12.9368 20.2418 11.6658 16.5983 5.89115 17.1186 -1.69831 34.8243 19.2452 1.23094 40.5118 11.5979 3.93899 15.1495 18.8712 7.3149 29.9186 18.5122 -19.4194 5.55416 0.455891 5.91711 3.23208 -17.7645 -13.9428 15.6768 -12.9585 24.0504 18.322 7.66671 16.3525 -14.4276 -10.6006 -3.40583 47.0265 9.54241 30.6458 10.421 15.9535 -6.6076 17.4728 3.07508 -6.13138 9.35976 19.0129 5.52137 41.1542 -15.5012 3.15806 2.78247 18.2459 -8.80017 43.9889 -11.0622 11.1452 34.6985 15.7817 -15.064 42.6514 2.2028 7.09079 22.0167 -16.8228 2.50385 48.4035 7.0483 15.3459 33.8619 -12.0946 -16.1936 30.551 11.6324 44.8011 -1.27705 -0.615035 22.447 -17.9452 8.28612 0.0876721 40.6056 16.8381 -3.88633 45.104 0.0552143 44.0061 5.1251 2.20828 -5.12308 25.3392 18.6722 31.7401 3.32038 -18.4164 -12.2689 23.3254 -14.1335 40.2749 -12.7392 -0.141196 7.68525 -9.0152 3.71028 26.0894 8.1725 -18.0927 33.7083 9.44895 -1.63064 19.369 31.9007 -4.10296 12.121 45.7114 -0.526778 -1.36327 -4.51551 -13.5159 41.3409 1.05645 11.2853 17.4213 36.994 6.40451 41.9516 -7.59723 7.18058 25.4894 -19.5666 3.09795 24.7586 -11.7146 -16.0279 -3.08314 3.94584 18.7354 -3.80042 16.5968 14.5444 7.1095 -7.56295 -5.76599 17.5065 20.6559 0.547706 41.7721 9.92822 -3.83912 25.8661 -3.07652 19.6531 23.4313 14.7128 13.2904 34.1442 13.0901 -11.8973 37.1868 6.55655 -14.2788 -0.953868 -5.9153 11.9527 -18.6225 24.4586 -4.25845 0.018627 -9.48014 3.92518 6.98443 41.5532 14.7035 -3.60634 16.0035 -18.6494 6.43455 9.72735 18.8952 29.0388 19.1598 -2.96226 35.4891 -6.00423 -15.7566 -5.32933 48.9705 -2.16606 41.0747 -10.2314 -5.45483 -7.32719 -1.39887 14.6179 28.9255 -14.1006 -3.8382 -17.585 17.9074 5.00301 32.2806 -17.8398 -4.76793 -13.145 1.94401 12.5149 13.8082 32.2882 -8.07181 16.3254 -16.1387 7.82273 34.2632 -15.6184 8.29248 -19.5732 33.0471 1.01359 -16.6886 11.1297 -10.6696 -10.5688 41.0564 12.6931 -9.49118 46.458 -5.89195 9.46145 43.0332 -11.7319 9.41345 -8.18185 9.14757 13.4271 10.0726 14.805 -2.01309 45.3111 -12.5337 1.5909 -8.75936 -6.3134 -12.5153 3.22644 -13.8399 0.947316 5.39334 -19.3296 18.8432 36.0105 1.07265 6.8715 29.3392 -18.6825 20.2258 16.641 -9.70373 36.9701 15.6065 2.1879 14.7648 42.6059 -4.308 -3.4249 43.7162 13.948 -9.21668 33.7542 -17.3292 -5.34434 37.8258 -17.5321 -7.6955 47.7973 4.36598 0.864002 22.6788 18.4864 -7.02254 34.4759 18.0482 9.06256 1.21701 2.0541 -8.40506 26.669 -11.4388 3.22633 -3.36968 14.3726 29.4132 18.0932 6.75901 33.8745 8.93243 15.4015 -19.0128 13.0714 -4.85796 21.9181 -19.5631 -1.09119 18.8715 24.9214 3.57054 -6.37265 14.6851 18.2492 -12.6354 26.0698 14.9197 3.69328 49.3478 1.88957 35.3175 -7.72776 15.207 -19.7166 27.7094 0.406282 38.0556 -10.4304 10.7285 12.1877 0.68061 15.2253 26.7775 -18.1775 -8.11415 20.5575 -3.44918 19.1359 7.20246 15.5389 -17.7174 33.9286 13.0379 12.086 29.3288 13.358 -14.1294 27.8937 -9.48278 17.351 -12.1092 17.6892 13.7214 -13.9095 20.1829 -10.2531 -5.42923 -0.885212 -15.7081 32.7256 -0.45325 18.3119 25.3686 5.9254 19.0684 -18.0245 24.7641 6.31047 -13.7659 41.4549 8.61526 12.464 43.6079 7.52433 -1.47044 13.5413 19.5155 -15.9795 6.01497 -11.1686 43.4635 0.310798 -7.44156 -2.46625 40.6952 8.89242 -17.8263 2.89491 -5.1061 22.1699 6.63045 -5.51772 18.9386 -5.62858 -18.0701 -13.6202 39.2064 -11.2212 7.69009 48.2212 -1.11638 8.46938 -10.947 -0.966448 -0.511165 36.7051 -18.771 20.1658 -13.0441 -14.2226 2.5021 12.5419 -19.5738 -15.854 29.9291 -12.1098 2.83903 32.4967 19.5268 -5.89107 42.051 -14.7557 -17.494 19.075 -1.9388 11.4991 22.3751 -14.3473 20.8924 3.60705 -19.1665 34.5276 5.57616 16.5213 -1.30258 -9.65072 -2.29328 -5.90461 -5.11881 11.5439 0.770288 48.3009 -7.73225 0.258786 30.5157 -19.8904 6.05224 47.5172 -7.2263 27.7722 16.6546 -10.4055 33.9803 -12.5009 -12.5372 14.8754 26.4482 -12.7014 -15.6031 -1.91066 3.11215 40.0354 10.9863 7.03944 9.0282 0.483276 -15.0325 33.7368 17.587 -2.58665 12.2801 31.9664 -15.5138 9.09801 -5.50269 -10.4801 -9.30955 -6.19555 6.86255 -13.8653 43.9471 -2.43054 17.6802 34.73 -7.80758 8.01424 16.1116 12.3977 -11.574 8.22076 16.0411 -13.125 34.1093 -14.368 15.4011 17.1361 -10.3378 10.5699 22.63 15.2066 -19.8737 10.1867 -1.01504 -8.03898 29.0974 -18.1514 20.027 16.5581 9.77297 28.3395 -13.9995 -13.6584 42.3543 -3.17812 9.14375 21.1194 19.0078 4.33338 22.7043 -1.65906 -19.7326 -17.3811 5.82288 8.74352 -14.7269 12.2507 13.1072 36.5095 14.2123 -7.84907 17.5183 1.33667 18.3792 16.5588 4.73852 -17.4395 7.01171 0.857137 16.1714 17.9815 30.0646 8.62423 41.9731 7.07285 -7.64826 -12.4077 -2.59496 -9.04455 -17.7498 33.6431 8.37401 30.0255 -15.2695 11.8654 -11.8079 45.4646 4.17119 12.2277 -4.76889 14.5149 15.2428 -17.1784 -2.18694 13.9255 -0.171947 -16.5267 -3.46608 3.8973 -18.6458 18.1812 10.0905 15.6942 35.33 -16.2195 4.96942 14.9113 -13.0508 11.0649 -2.96621 35.9762 7.43941 -0.814419 49.7634 -1.21471 -13.0691 31.528 14.974 12.7676 -13.7567 -7.67478 21.6904 19.2624 -3.45237 -15.224 20.2178 8.30091 29.5924 -19.2613 0.910865 9.26548 6.43796 -17.335 28.4572 -7.22742 -18.1874 35.8537 -3.24675 16.312 -13.6676 -4.3286 -1.39443 20.7913 12.1991 -15.1939 4.6887 26.1349 19.0373 26.408 12.1636 15.6802 26.705 1.4302 19.8594 12.8659 -7.9954 -13.5263 27.7665 19.4548 2.73257 23.1973 -19.0439 -5.43298 19.019 19.0079 -0.520236 7.14862 17.7006 16.9406 25.7678 -16.5242 11.0025 -18.0002 31.2822 -8.3701 -6.95149 -8.26467 3.61049 43.8727 -4.48464 4.53255 6.45849 37.2 -17.4656 -10.149 -7.0994 -0.873378 13.742 16.0288 13.0503 20.9532 -9.52126 -17.0291 43.9391 -5.1484 -2.74932 -6.48506 -8.05898 -5.14965 20.88 6.04001 18.5011 -9.12093 28.6584 5.84878 19.9749 30.2308 0.00800435 -8.55955 23.2044 -16.6171 9.63008 -11.2462 -5.73201 37.5336 -15.1692 2.40362 -14.1574 -1.82536 7.32126 15.1975 37.6499 10.1976 13.6422 31.2818 14.4249 -18.1419 14.0371 7.1113 -15.1608 -1.46803 -5.75352 -7.39516 44.076 12.0067 19.865 -16.8009 -9.30066 -17.9333 1.72132 2.10817 2.80785 21.8604 -17.9326 15.8341 28.0426 11.9117 8.51371 33.3074 -17.6904 10.3061 -13.0234 2.45259 8.76868 25.924 17.4608 -11.9791 12.8172 -15.627 36.8334 -13.0274 -9.28394 -10.9932 3.18042 3.29772 41.4653 -10.5455 3.42824 -18.8398 34.8015 -4.32649 27.0399 -1.98747 -19.7265 32.6291 16.0465 8.8463 15.7135 21.3035 8.50799 -6.59388 18.6945 16.6158 17.4958 -7.98655 16.6079 -16.6994 21.9975 -7.22937 3.08112 19.1303 17.4777 -9.70761 37.04 15.8727 15.0309 -5.48913 -16.2737 -18.3975 36.8618 2.61143 -5.34494
[...]
    <CellData Scalars="MeshDomain">
      <DataArray type="Float64" Name="MeshDomain" format="ascii">
1 1 1 1 1 1 1 1 1 1 1 1 1 1 1 1 1 1 1 1 1 1 1 1 1 1 1 1 1 1 1 1 1 1 1 1 1 1 1 1 1 1 1 1 1 1 1 1 1 1 1 1 1 1 1 1 1 1 1 1 1 1 1 1 1 1 1 1 1 1 1 1 1 1 1 1 1 1 1 1 1 1 1 1 1 1 1 1 1 1 1 1 1 1 1 1 1 1 1 1 1 1 1 1 1 1 1 1 1 1 1 1 1 1 1 1 1 1 1 1 1 1 1 1 1 1 1 1 1 1 1 1 1 1 1 1 1 1 1 1 1 1 1 1 1 1 1 1 1 1 1 1 1 1 1 1 1 1 1 1 1 1 1 1 1 1 1 1 1 1 1 1 1 1 1 1 1 1 1 1 1 1 1 1 1 1 1 1 1 1 1 1 1 1 1 1 1 1 1 1 1 1 1 1 1 1 1 1 1 1 1 1 1 1 1 1 1 1 1 1 1 1 1 1 1 1 1 1 1 1 1 1 1 1 1 1 1 1 1 1 1 1 1 1 1 1 1 1 1 1 1 1 1 1 1 1 1 1 1 1 1 1 1 1 1 1 1 1 1 1 1 1 1 1 1 1 1 1 1 1 1 1 1 1 1 1 1 1 1 1 1 1 1 1 1 1 1 1 1 1 1 1 1 1 1 1 1 1 1 1 1 1 1 1 1 1 1 1 1 1 1 1 1 1 1 1 1 1 1 1 1 1 1 1 1 1 1 1 1 1 1 1 1 1 1 1 1 1 1 1 1 1 1 1 1 1 1 1 1 1 1 1 1 1 1 1 1 1 1 1 1 1 1 1 1 1 1 1 1 1 1 1 1 1 1 1 1 1 1 1 1 1 1 1 1 1 1 1 1 1 1 1 1 1 1 1 1 1 1 1 1 1 1 1 1 1 1 1 1 1 1 1 1 1 1 1 1 1 1 1 1 1 1 1 1 1 1 1 1 1 1 1 1 1 1 1 1 1 1 1 1 1 1 1 1 1 1 1 1 1 1 1 1 1 1 1 1 1 1 1 1 1 1 1 1 1 1 1 1 1 1 1 1 1 1 1 1 1 1 1 1 1 1 1 1 1 1 1 1 1 1 1 1 1 1 1 1 1 1 1 1 1 1 1 1 1 1 1 1 1 1 1 1 1 1 1 1 1 1 1 1 1 1 1 1 1 1 1 1 1 1 1 1 1 1 1 1 1 1 1 1 1 1 1 1 1 1 1 1 1 1 1 1 1 1 1 1 1 1 1 1 1 1 1 1 1 1 1 1 1 1 1 1 1 1 1 1 1 1 1 1 1 1 1 1 1 1 1 1 1 1 1 1 1 1 1 1 1 1 1 1 1 1 1 1 1 1 1 1 1 1 1 1 1 1 1 1 1 1 1 1 1 1 1 1 1 1 1 1 1 1 1 1 1 1 1 1 1 1 1 1 1 1 1 1 1 1 1 1 1 1 1 1 1 1 1 1 1 1 1 1 1 1 1 1 1 1 1 1 1 1 1 1 1 1 1 1 1 1 1 1 1 1 1 1 1 1 1 1 1 1 1 1 1 1 1 1 1 1 1 1 1 1 1 1 1 1 1 1 1 1 1 1 1 1 1 1 1 1 1 1 1 1 1 1 1 1 1 1 1 1 1 1 1 1 1 1 1 1 1 1 1 1 1 1 1 1 1 1 1 1 1 1 1 1 1 1 1 1 1 1 1 1 1 1 1 1 1 1 1 1 1 1 1 1 1 1 1 1 1 1 1 1 1 1 1 1 1 1 1 1 1 1 1 1 1 1 1 1 1 1 1 1 1 1 1 1 1 1 1 1 1 1 1 1 1 1 1 1 1 1 1 1 1 1 1 1 1 1 1 1 1 1 1 1 1 1 1 1 1 1 1 1 1 1 1 1 1 1 1 1 1 1 1 1 1 1 1 1 1 1 1 1 1 1 1 1 1 1 1 1 1 1 1 1 1 1 1 1 1 1 1 1 1 1 1 1 1 1 1 1 1 1 1 1 1 1 1 1 1 1 1 1 1 1 1 1 1 1 1 1 1 1 1 1 1 1 1 1 1 1 1 1 1 1 1 1 1 1 1 1 1 1 1 1 1 1 1 1 1 1 1 1 1 1 1 1 1 1 1 1 1 1 1 1 1 1 1 1 1 1 1 1 1 1 1 1 1 1 1 1 1 1 1 1 1 1 1 1 1 1 1 1 1 1 1 1 1 1 1 1 1 1 1 1 1 1 1 1 1 1 1 1 1 1 1 1 1 1 1 1 1 1 1 1 1 1 1 1 1 1 1 1 1 1 1 1 1 1 1 1 1 1 1 1 1 1 1 1 1 1 1 1 1 1 1 1 1 1 1 1 1 1 1 1 1 1 1 1 1 1 1 1 1 1 1 1 1 1 1 1 1 1 1 1 1 1 1 1 1 1 1 1 1 1 1 1 1 1 1 1 1 1 1 1 1 1 1 1 1 1 1 1 1 1 1 1 1 1 1 1 1 1 1 1 1 1 1 1 1 1 1 1 1 1 1 1 1 1 1 1 1 1 1 1 1 1 1 1 1 1 1 1 1 1 1 1 1 1 1 1 1 1 1 1 1 1 1 1 1 1 1 1 1 1 1 1 1 1 1 1 1 1 1 1 1 1 1 1 1 1 1 1 1 1 1 1 1 1 1 1 1 1 1 1 1 1 1 1 1 1 1 1 1 1 1 1 1 1 1 1 1 1 1 1 1 1 1 1 1 1 1 1 1 1 1 1 1 1 1 1 1 1 1 1 1 1 1 1 1 1 1 1 1 1 1 1 1 1 1 1 1 1 1 1 1 1 1 1 1 1 1 1 1 1 1 1 1 1 1 1 1 1 1 1 1 1 1 1 1 1 1 1 1 1 1 1 1 1 1 1 1 1 1 1 1 1 1 1 1 1 1 1 1 1 1 1 1 1 1 1 1 1 1 1 1 1 1 1 1 1 1 1 1 1 1 1 1 1 1 1 1 1 1 1 1 1 1 1 1 1 1 1 1 1 1 1 1 1 1 1 1 1 1 1 1 1 1 1 1 1 1 1 1 1 1 1 1 1 1 1 1 1 1 1 1 1 1 1 1 1 1 1 1 1 1 1 1 1 1 1 1 1 1 1 1 1 1 1 1 1 1 1 1 1 1 1 1 1 1 1 1 1 1 1 1 1 1 1 1 1 1 1 1 1 1 1 1 1 1 1 1 1 1 1 1 1 1 1 1 1 1 1 1 1 1 1 1 1 1 1 1 1 1 1 1 1 1 1 1 1 1 1 1 1 1 1 1 1 1 1 1 1 1 1 1 1 1 1 1 1 1 1 1 1 1 1 1 1 1 1 1 1 1 1 1 1 1 1 1 1 1 1 1 1 1 1 1 1 1 1 1 1 1 1 1 1 1 1 1 1 1 1 1 1 1 1 1 1 1 1 1 1 1 1 1 1 1 1 1 1 1 1 1 1 1 1 1 1 1 1 1 1 1 1 1 1 1 1 1 1 1 1 1 1 1 1 1 1 1 1 1 1 1 1 1 1 1 1 1 1 1 1 1 1 1 1 1 1 1 1 1 1 1 1 1 1 1 1 1 1 1 1 1 1 1 1 1 1 1 1 1 1 1 1 1 1 1 1 1 1 1 1 1 1 1 1 1 1 1 1 1 1 1 1 1 1 1 1 1 1 1 1 1 1 1 1 1 1 1 1 1 1 1 1 1 1 1 1 1 1 1 1 1 1 1 1 1 1 1 1 1 1 1 1 1 1 1 1 1 1 1 1 1 1 1 1 1 1 1 1 1 1 1 1 1 1 1 1 1 1 1 1 1 1 1 1 1 1 1 1 1 1 1 1 1 1 1 1 1 1 1 1 1 1 1 1 1 1 1 1 1 1 1 1 1 1 1 1 1 1 1 1 1 1 1 1 1 1 1 1 1 1 1 1 1 1 1 1 1 1 1 1 1 1 1 1 1 1 1 1 1 1 1 1 1 1 1 1 1 1 1 1 1 1 1 1 1 1 1 1 1 1 1 1 1 1 1 1 1 1 1 1 1 1 1 1 1 1 1 1 1 1 1 1 1 1 1 1 1 1 1 1 1 1 1 1 1 1 1 1 1 1 1 1 1 1 1 1 1 1 1 1 1 1 1 1 1 1 1 1 1 1 1 1 1 1 1 1 1 1 1 1 1 1 1 1 1 1 1 1 1 1 1 1 1 1 1 1 1 1 1 1 1 1 1 1 1 1 1 1 1 1 1 1 1 1 1 1 1 1 1 1 1 1 1 1 1 1 1 1 1 1 1 1 1 1 1 1 1 1 1 1 1 1 1 1 1 1 1 1 1 1 1 1 1 1 1 1 1 1 1 1 1 1 1 1 1 1 1 1 1 1 1 1 1 1 1 1 1 1 1 1 1 1 1 1 1 1 1 1 1 1 1 1 1 1 1 1 1 1 1 1 1 1 1 1 1 1 1 1 1 1 1 1 1 1 1 1 1 1 1 1 1 1 1 1 1 1 1 1 1 1 1 1 1 1 1 1 1 1 1 1 1 1 1 1 1 1 1 1 1 1 1 1 1 1 1 1 1 1 1 1 1 1 1 1 1 1 1 1 1 1 1 1 1 1 1 1 1 1 1 1 1 1 1 1 1 1 1 1 1 1 1 1 1 1 1 1 1 1 1 1 1 1 1 1 1 1 1 1 1 1 1 1 1 1 1 1 1 1 1 1 1 1 1 1 1 1 1 1 1 1 1 1 1 1 1 1 1 1 1 1 1 1 1 1 1 1 1 1 1 1 1 1 1 1 1 1 1 1 1 1 1 1 1 1 1 1 1 1 1 1 1 1 1 1 1 1 1 1 1 1 1 1 1 1 1 1 1 1 1 1 1 1 1 1 1 1 1 1 1 1 1 1 1 1 1 1 1 1 1 1 1 1 1 1 1 1 1 1 1 1 1 1 1 1 1 1 1 1 1 1 1 1 1 1 1 1 1 1 1 1 1 1 1 1 1 1 1 1 1 1 1 1 1 1 1 1 1 1 1 1 1 1 1 1 1 1 1 1 1 1 1 1 1 1 1 1 1 1 1 1 1 1 1 1 1 1 1 1 1 1 1 1 1 1 1 1 1 1 1 1 1 1 1 1 1 1 1 1 1 1 1 1 1 1 1 1 1 1 1 1 1 1 1 1 1 1 1 1 1 1 1 1 1 1 1 1 1 1 1 1 1 1 1 1 1 1 1 1 1 1 1 1 1 1 1 1 1 1 1 1 1 1 1 1 1 1 1 1 1 1 1 1 1 1 1 1 1 1 1 1 1 1 1 1 1 1 1 1 1 1 1 1 1 1 1 1 1 1 1 1 1 1 1 1 1 1 1 1 1 1 1 1 1 1 1 1 1 1 1 1 1 1 1 1 1 1 1 1 1 1 1 1 1 1 1 1 1 1 1 1 1 1 1 1 1 1 1 1 1 1 1 1 1 1 1 1 1 1 1 1 1 1 1 1 1 1 1 1 1 1 1 1 1 1 1 1 1 1 1 1 1 1 1 1 1 1 1 1 1 1 1 1 1 1 1 1 1 1 1 1 1 1 1 1 1 1 1 1 1 1 1 1 1 1 1 1 1 1 1 1 1 1 1 1 1 1 1 1 1 1 1 1 1 1 1 1 1 1 1 1 1 1 1 1 1 1 1 1 1 1 1 1 1 1 1 1 1 1 1 1 1 1 1 1 1 1 1 1 1 1 1 1 1 1 1 1 1 1 1 1 1 1 1 1 1 1 1 1 1 1 1 1 1 1 1 1 1 1 1 1 1 1 1 1 1 1 1 1 1 1 1 1 1 1 1 1 1 1 1 1 1 1 1 1 1 1 1 1 1 1 1 1 1 1 1 1 1 1 1 1 1 1 1 1 1 1 1 1 1 1 1 1 1 1 1 1 1 1 1 1 1 1 1 1 1 1 1 1 1 1 1 1 1 1 1 1 1 1 1 1 1 1 1 1 1 1 1 1 1 1 1 1 1 1 1 1 1 1 1 1 1 1 1 1 1 1 1 1 1 1 1 1 1 1 1 1 1 1 1 1 1 1 1 1 1 1 1 1 1 1 1 1 1 1 1 1 1 1 1 1 1 1 1 1 1 1 1 1 1 1 1 1 1 1 1 1 1 1 1 1 1 1 1 1 1 1 1 1 1 1 1 1 1 1 1 1 1 1 1 1 1 1 1 1 1 1 1 1 1 1 1 1 1 1 1 1 1 1 1 1 1 1 1 1 1 1 1 1 1 1 1 1 1 1 1 1 1 1 1 1 1 1 1 1 1 1 1 1 1 1 1 1 1 1 1 1 1 1 1 1 1 1 1 1 1 1 1 1 1 1 1 1 1 1 1 1 1 1 1 1 1 1 1 1 1 1 1 1 1 1 1 1 1 1 1 1 1 1 1 1 1 1 1 1 1 1 1 1 1 1 1 1 1 1 1 1 1 1 1 1 1 1 1 1 1 1 1 1 1 1 1 1 1 1 1 1 1 1 1 1 1 1 1 1 1 1 1 1 1 1 1 1 1 1 1 1 1 1 1 1 1 1 1 1 1 1 1 1 1 1 1 1 1 1 1 1 1 1 1 1 1 1 1 1 1 1 1 1 1 1 1 1 1 1 1 1 1 1 1 1 1 1 1 1 1 1 1 1 1 1 1 1 1 1 1 1 1 1 1 1 1 1 1 1 1 1 1 1 1 1 1 1 1 1 1 1 1 1 1 1 1 1 1 1 1 1 1 1 1 1 1 1 1 1 1 1 1 1 1 1 1 1 1 1 1 1 1 1 1 1 1 1 1 1 1 1 1 1 1 1 1 1 1 1 1 1 1 1 1 1 1 1 1 1 1 1 1 1 1 1 1 1 1 1 1 1 1 1 1 1 1 1 1 1 1 1 1 1 1 1 1 1 1 1 1 1 1 1 1 1 1 1 1 1 1 1 1 1 1 1 1 1 1 1 1 1 1 1 1 1 1 1 1 1 1 1 1 1 1 1 1 1 1 1 1 1 1 1 1 1 1 1 1 1 1 1 1 1 1 1 1 1 1 1 1 1 1 1 1 1 1 1 1 1 1 1 1 1 1 1 1 1 1 1 1 1 1 1 1 1 1 1 1 1 1 1 1 1 1 1 1 1 1 1 1 1 1 1 1 1 1 1 1 1 1 1 1 1 1 1 1 1 1 1 1 1 1 1 1 1 1 1 1 1 1 1 1 1 1 1 1 1 1 1 1 1 1 1 1 1 1 1 1 1 1 1 1 1 1 1 1 1 1 1 1 1 1 1 1 1 1 1 1 1 1 1 1 1 1 1 1 1 1 1 1 1 1 1 1 1 1 1 1 1 1 1 1 1 1 1 1 1 1 1 1 1 1 1 1 1 1 1 1 1 1 1 1 1 1 1 1 1 1 1 1 1 1 1 1 1 1 1 1 1 1 1 1 1 1 1 1 1 1 1 1 1 1 1 1 1 1 1 1 1 1 1 1 1 1 1 1 1 1 1 1 1 1 1 1 1 1 1 1 1 1 1 1 1 1 1 1 1 1 1 1 1 1 1 1 1 1 1 1 1 1 1 1 1 1 1 1 1 1 1 1 1 1 1 1 1 1 1 1 1 1 1 1 1 1 1 1 1 1 1 1 1 1 1 1 1 1 1 1 1 1 1 1 1 1 1 1 1 1 1 1 1 1 1 1 1 1 1 1 1 1 1 1 1 1 1 1 1 1 1 1 1 1 1 1 1 1 1 1 1 1 1 1 1 1 1 1 1 1 1 1 1 1 1 1 1 1 1 1 1 1 1 1 1 1 1 1 1 1 1 1 1 1 1 1 1 1 1 1 1 1 1 1 1 1 1 1 1 1 1 1 1 1 1 1 1 1 1 1 1 1 1 1 1 1 1 1 1 1 1 1 1 1 1 1 1 1 1 1 1 1 1 1 1 1 1 1 1 1 1 1 1 1 1 1 1 1 1 1 1 1 1 1 1 1 1 1 1 1 1 1 1 1 1 1 1 1 1 1 1 1 1 1 1 1 1 1 1 1 1 1 1 1 1 1 1 1 1 1 1 1 1 1 1 1 1 1 1 1 1 1 1 1 1 1 1 1 1 1 1 1 1 1 1 1 1 1 1 1 1 1 1 1 1 1 1 1 1 1 1 1 1 1 1 1 1 1 1 1 1 1 1 1 1 1 1 1 1 1 1 1 1 1 1 1 1 1 1 1 1 1 1 1 1 1 1 1 1 1 1 1 1 1 1 1 1 1 1 1 1 1 1 1 1 1 1 1 1 1 1 1 1 1 1 1 1 1 1 1 1 1 1 1 1 1 1 1 1 1 1 1 1 1 1 1 1 1 1 1 1 1 1 1 1 1 1 1 1 1 1 1 1 1 1 1 1 1 1 1 1 1 1 1 1 1 1 1 1 1 1 1 1 1 1 1 1 1 1 1 1 1 1 1 1 1 1 1 1 1 1 1 1 1 1 1 1 1 1 1 1 1 1 1 1 1 1 1 1 1 1 1 1 1 1 1 1 1 1 1 1 1 1 1 1 1 1 1 1 1 1 1 1 1 1 1 1 1 1 1 1 1 1 1 1 1 1 1 1 1 1 1 1 1 1 1 1 1 1 1 1 1 1 1 1 1 1 1 1 1 1 1 1 1 1 1 1 1 1 1 1 1 1 1 1 1 1 1 1 1 1 1 1 1 1 1 1 1 1 1 1 1 1 1 1 1 1 1 1 1 1 1 1 1 1 1 1 1 1 1 1 1 1 1 1 1 1 1 1 1 1 1 1 1 1 1 1 1 1 1 1 1 1 1 1 1 1 1 1 1 1 1 1 1 1 1 1 1 1 1 1 1 1 1 1 1 1 1 1 1 1 1 1 1 1 1 1 1 1 1 1 1 1 1 1 1 1 1 1 1 1 1 1 1 1 1 1 1 1 1 1 1 1 1 1 1 1 1 1 1 1 1 1 1 1 1 1 1 1 1 1 1 1 1 1 1 1 1 1 1 1 1 1 1 1 1 1 1 1 1 1 1 1 1 1 1 1 1 1 1 1 1 1 1 1 1 1 1 1 1 1 1 1 1 1 1 1 1 1 1 1 1 1 1 1 1 1 1 1 1 1 1 1 1 1 1 1 1 1 1 1 1 1 1 1 1 1 1 1 1 1 1 1 1 1 1 1 1 1 1 1 1 1 1 1 1 1 1 1 1 1 1 1 1 1 1 1 1 1 1 1 1 1 1 1 1 1 1 1 1 1 1 1 1 1 1 1 1 1 1 1 1 1 1 1 1 1 1 1 1 1 1 1 1 1 1 1 1 1 1 1 1 1 1 1 1 1 1 1 1 1 1 1 1 1 1 1 1 1 1 1 1 1 1 1 1 1 1 1 1 1 1 1 1 1 1 1 1 1 1 1 1 1 1 1 1 1 1 1 1 1 1 1 1 1 1 1 1 1 1 1 1 1 1 1 1 1 1 1 1 1 1 1 1 1 1 1 1 1 1 1 1 1 1 1 1 1 1 1 1 1 1 1 1 1 1 1 1 1 1 1 1 1 1 1 1 1 1 1 1 1 1 1 1 1 1 1 1 1 1 1 1 1 1 1 1 1 1 1 1 1 1 1 1 1 1 1 1 1 1 1 1 1 1 1 1 1 1 1 1 1 1 1 1 1 1 1 1 1 1 1 1 1 1 1 1 1 1 1 1 1 1 1 1 1 1 1 1 1 1 1 1 1 1 1 1 1 1 1 1 1 1 1 1 1 1 1 1 1 1 1 1 1 1 1 1 1 1 1 1 1 1 1 1 1 1 1 1 1 1 1 1 1 1 1 1 1 1 1 1 1 1 1 1 1 1 1 1 1 1 1 1 1 1 1 1 1 1 1 1 1 1 1 1 1 1 1 1 1 1 1 1 1 1 1 1 1 1 1 1 1 1 1 1 1 1 1 1 1 1 1 1 1 1 1 1 1 1 1 1 1 1 1 1 1 1 1 1 1 1 1 1 1 1 1 1 1 1 1 1 1 1 1 1 1 1 1 1 1 1 1 1 1 1 1 1 1 1 1 1 1 1 1 1 1 1 1 1 1 1 1 1 1 1 1 1 1 1 1 1 1 1 1 1 1 1 1 1 1 1 1 1 1 1 1 1 1 1 1 1 1 1 1 1 1 1 1 1 1 1 1 1 1 1 1 1 1 1 1 1 1 1 1 1 1 1 1 1 1 1 1 1 1 1 1 1 1 1 1 1 1 1 1 1 1 1 1 1 1 1 1 1 1 1 1 1 1 1 1 1 1 1 1 1 1 1 1 1 1 1 1 1 1 1 1 1 1 1 1 1 1 1 1 1 1 1 1 1 1 1 1 1 1 1 1 1 1 1 1 1 1 1 1 1 1 1 1 1 1 1 1 1 1 1 1 1 1 1 1 1 1 1 1 1 1 1 1 1 1 1 1 1 1 1 1 1 1 1 1 1 1 1 1 1 1 1 1 1 1 1 1 1 1 1 1 1 1 1 1 1 1 1 1 1 1 1 1 1 1 1 1 1 1 1 1 1 1 1 1 1 1 1 1 1 1 1 1 1 1 1 1 1 1 1 1 1 1 1 1 1 1 1 1 1 1 1 1 1 1 1 1 1 1 1 1 1 1 1 1 1 1 1 1 1 1 1 1 1 1 1 1 1 1 1 1 1 1 1 1 1 1 1 1 1 1 1 1 1 1 1 1 1 1 1 1 1 1 1 1 1 1 1 1 1 1 1 1 1 1 1 1 1 1 1 1 1 1 1 1 1 1 1 1 1 1 1 1 1 1 1 1 1 1 1 1 1 1 1 1 1 1 1 1 1 1 1 1 1 1 1 1 1 1 1 1 1 1 1 1 1 1 1 1 1 1 1 1 1 1 1 1 1 1 1 1 1 1 1 1 1 1 1 1 1 1 1 1 1 1 1 1 1 1 1 1 1 1 1 1 1 1 1 1 1 1 1 1 1 1 1 1 1 1 1 1 1 1 1 1 1 1 1 1 1 1 1 1 1 1 1 1 1 1 1 1 1 1 1 1 1 1 1 1 1 1 1 1 1 1 1 1 1 1 1 1 1 1 1 1 1 1 1 1 1 1 1 1 1 1 1 1 1 1 1 1 1 1 1 1 1 1 1 1 1 1 1 1 1 1 1 1 1 1 1 1 1 1 1 1 1 1 1 1 1 1 1 1 1 1 1 1 1 1 1 1 1 1 1 1 1 1 1 1 1 1 1 1 1 1 1 1 1 1 1 1 1 1 1 1 1 1 1 1 1 1 1 1 1 1 1 1 1 1 1 1 1 1 1 1 1 1 1 1 1 1 1 1 1 1 1 1 1 1 1 1 1 1 1 1 1 1 1 1 1 1 1 1 1 1 1 1 1 1 1 1 1 1 1 1 1 1 1 1 1 1 1 1 1 1 1 1 1 1 1 1 1 1 1 1 1 1 1 1 1 1 1 1 1 1 1 1 1 1 1 1 1 1 1 1 1 1 1 1 1 1 1 1 1 1 1 1 1 1 1 1 1 1 1 1 1 1 1 1 1 1 1 1 1 1 1 1 1 1 1 1 1 1 1 1 1 1 1 1 1 1 1 1 1 1 1 1 1 1 1 1 1 1 1 1 1 1 1 1 1 1 1 1 1 1 1 1 1 1 1 1 1 1 1 1 1 1 1 1 1 1 1 1 1 1 1 1 1 1 1 1 1 1 1 1 1 1 1 1 1 1 1 1 1 1 1 1 1 1 1 1 1 1 1 1 1 1 1 1 1 1 1 1 1 1 1 1 1 1 1 1 1 1 1 1 1 1 1 1 1 1 1 1 1 1 1 1 1 1 1 1 1 1 1 1 1 1 1 1 1 1 1 1 1 1 1 1 1 1 1 1 1 1 1 1 1 1 1 1 1 1 1 1 1 1 1 1 1 1 1 1 1 1 1 1 1 1 1 1 1 1 1 1 1 1 1 1 1 1 1 1 1 1 1 1 1 1 1 1 1 1 1 1 1 1 1 1 1 1 1 1 1 1 1 1 1 1 1 1 1 1 1 1 1 1 1 1 1 1 1 1 1 1 1 1 1 1 1 1 1 1 1 1 1 1 1 1 1 1 1 1 1 1 1 1 1 1 1 1 1 1 1 1 1 1 1 1 1 1 1 1 1 1 1 1 1 1 1 1 1 1 1 1 1 1 1 1 1 1 1 1 1 1 1 1 1 1 1 1 1 1 1 1 1 1 1 1 1 1 1 1 1 1 1 1 1 1 1 1 1 1 1 1 1 1 1 1 1 1 1 1 1 1 1 1 1 1 1 1 1 1 1 1 1 1 1 1 1 1 1 1 1 1 1 1 1 1 1 1 1 1 1 1 1 1 1 1 1 1 1 1 1 1 1 1 1 1 1 1 1 1 1 1 1 1 1 1 1 1 1 1 1 1 1 1 1 1 1 1 1 1 1 1 1 1 1 1 1 1 1 1 1 1 1 1 1 1 1 1 1 1 1 1 1 1 1 1 1 1 1 1 1 1 1 1 1 1 1 1 1 1 1 1 1 1 1 1 1 1 1 1 1 1 1 1 1 1 1 1 1 1 1 1 1 1 1 1 1 1 1 1 1 1 1 1 1 1 1 1 1 1 1 1 1 1 1 1 1 1 1 1 1 1 1 1 1 1 1 1 1 1 1 1 1 1 1 1 1 1 1 1 1 1 1 1 1 1 1 1 1 1 1 1 1 1 1 1 1 1 1 1 1 1 1 1 1 1 1 1 1 1 1 1 1 1 1 1 1 1 1 1 1 1 1 1 1 1 1 1 1 1 1 1 1 1 1 1 1 1 1 1 1 1 1 1 1 1 1 1 1 1 1 1 1 1 1 1 1 1 1 1 1 1 1 1 1 1 1 1 1 1 1 1 1 1 1 1 1 1 1 1 1 1 1 1 1 1 1 1 1 1 1 1 1 1 1 1 1 1 1 1 1 1 1 1 1 1 1 1 1 1 1 1 1 1 1 1 1 1 1 1 1 1 1 1 1 1 1 1 1 1 1 1 1 1 1 1 1 1 1 1 1 1 1 1 1 1 1 1 1 1 1 1 1 1 1 1 1 1 1 1 1 1 1 1 1 1 1 1 1 1 1 1 1 1 1 1 1 1 1 1 1 1 1 1 1 1 1 1 1 1 1 1 1 1 1 1 1 1 1 1 1 1 1 1 1 1 1 1 1 1 1 1 1 1 1 1 1 1 1 1 1 1 1 1 1 1 1 1 1 1 1 1 1 1 1 1 1 1 1 1 1 1 1 1 1 1 1 1 1 1 1 1 1 1 1 1 1 1 1 1 1 1 1 1 1 1 1 1 1 1 1 1 1 1 1 1 1 1 1 1 1 1 1 1 1 1 1 1 1 1 1 1 1 1 1 1 1 1 1 1 1 1 1 1 1 1 1 1 1 1 1 1 1 1 1 1 1 1 1 1 1 1 1 1 1 1 1 1 1 1 1 1 1 1 1 1 1 1 1 1 1 1 1 1 1 1 1 1 1 
      </DataArray>
    </CellData>
   </Piece>
  </UnstructuredGrid>
</VTKFile>
